#MODEL FOR PE WITH DIFFERENT DP  3
700  atoms
697 bonds
698 angles
699 dihedrals

1     atom types
1     bond types
1     angle types
1     dihedral types
0    23.804 xlo xhi
0    23.804 ylo yhi
0    23.804 zlo zhi

Masses

1          14.02

Atoms

1	1	1	14.0660	3.2460	5.4100
2	1	1	14.0660	4.3280	6.4920
3	1	1	15.1480	4.3280	5.4100
4	1	1	15.1480	3.2460	6.4920
5	1	1	15.1480	4.3280	7.5740
6	1	1	16.2300	4.3280	6.4920
7	1	1	17.3120	3.2460	6.4920
8	1	1	17.3120	4.3280	5.4100
9	1	1	16.2300	4.3280	4.3280
10	1	1	15.1480	3.2460	4.3280
11	1	1	14.0660	2.1640	4.3280
12	1	1	12.9840	3.2460	4.3280
13	1	1	11.9020	3.2460	5.4100
14	1	1	12.9840	2.1640	5.4100
15	1	1	14.0660	2.1640	6.4920
16	1	1	15.1480	2.1640	5.4100
17	1	1	15.1480	1.0820	6.4920
18	1	1	16.2300	2.1640	6.4920
19	1	1	16.2300	3.2460	7.5740
20	1	1	17.3120	3.2460	8.6560
21	1	1	16.2300	4.3280	8.6560
22	1	1	16.2300	5.4100	9.7380
23	1	1	17.3120	6.4920	9.7380
24	1	1	17.3120	5.4100	10.8200
25	1	1	16.2300	6.4920	10.8200
26	1	1	16.2300	5.4100	11.9020
27	1	1	17.3120	5.4100	12.9840
28	1	1	17.3120	4.3280	11.9020
29	1	1	16.2300	4.3280	12.9840
30	1	1	16.2300	3.2460	14.0660
31	1	1	17.3120	3.2460	15.1480
32	1	1	18.3940	3.2460	16.2300
33	1	1	17.3120	4.3280	16.2300
34	1	1	18.3940	5.4100	16.2300
35	1	1	18.3940	4.3280	17.3120
36	1	1	17.3120	3.2460	17.3120
37	1	1	17.3120	4.3280	18.3940
38	1	1	18.3940	4.3280	19.4760
39	1	1	17.3120	3.2460	19.4760
40	1	1	17.3120	2.1640	18.3940
41	1	1	16.2300	2.1640	19.4760
42	1	1	16.2300	1.0820	20.5580
43	1	1	16.2300	2.1640	21.6400
44	1	1	17.3120	2.1640	20.5580
45	1	1	17.3120	1.0820	19.4760
46	1	1	16.2300	1.0820	18.3940
47	1	1	15.1480	1.0820	17.3120
48	1	1	16.2300	2.1640	17.3120
49	1	1	16.2300	3.2460	16.2300
50	1	1	15.1480	2.1640	16.2300
101	1	1	15.1480	1.0820	15.1480
102	1	1	15.1480	2.1640	14.0660
103	1	1	14.0660	3.2460	14.0660
104	1	1	12.9840	2.1640	14.0660
105	1	1	14.0660	2.1640	15.1480
106	1	1	14.0660	1.0820	14.0660
107	1	1	14.0660	2.1640	12.9840
108	1	1	15.1480	2.1640	11.9020
109	1	1	15.1480	3.2460	12.9840
110	1	1	16.2300	2.1640	12.9840
111	1	1	16.2300	1.0820	11.9020
112	1	1	16.2300	0.0000	10.8200
113	1	1	16.2300	-1.0820	9.7380
114	1	1	17.3120	0.0000	9.7380
115	1	1	18.3940	-1.0820	9.7380
116	1	1	19.4760	0.0000	9.7380
117	1	1	19.4760	1.0820	10.8200
118	1	1	18.3940	2.1640	10.8200
119	1	1	19.4760	2.1640	11.9020
120	1	1	18.3940	3.2460	11.9020
121	1	1	17.3120	2.1640	11.9020
122	1	1	17.3120	1.0820	12.9840
123	1	1	17.3120	0.0000	11.9020
124	1	1	18.3940	1.0820	11.9020
125	1	1	18.3940	0.0000	10.8200
126	1	1	18.3940	1.0820	9.7380
127	1	1	17.3120	1.0820	10.8200
128	1	1	16.2300	2.1640	10.8200
129	1	1	17.3120	2.1640	9.7380
130	1	1	18.3940	2.1640	8.6560
131	1	1	17.3120	1.0820	8.6560
132	1	1	16.2300	1.0820	7.5740
133	1	1	15.1480	1.0820	8.6560
134	1	1	14.0660	0.0000	8.6560
135	1	1	14.0660	-1.0820	7.5740
136	1	1	15.1480	-1.0820	8.6560
137	1	1	15.1480	0.0000	9.7380
138	1	1	14.0660	-1.0820	9.7380
139	1	1	14.0660	0.0000	10.8200
140	1	1	14.0660	1.0820	11.9020
141	1	1	12.9840	1.0820	10.8200
142	1	1	11.9020	1.0820	11.9020
143	1	1	11.9020	0.0000	12.9840
144	1	1	11.9020	-1.0820	14.0660
145	1	1	12.9840	-1.0820	12.9840
146	1	1	12.9840	-2.1640	14.0660
147	1	1	11.9020	-2.1640	12.9840
148	1	1	12.9840	-2.1640	11.9020
149	1	1	11.9020	-3.2460	11.9020
150	1	1	10.8200	-2.1640	11.9020
51	1	1	14.0660	3.2460	16.2300
52	1	1	14.0660	4.3280	15.1480
53	1	1	15.1480	4.3280	16.2300
54	1	1	15.1480	3.2460	15.1480
55	1	1	15.1480	4.3280	14.0660
56	1	1	15.1480	5.4100	15.1480
57	1	1	16.2300	5.4100	14.0660
58	1	1	17.3120	5.4100	15.1480
59	1	1	17.3120	6.4920	14.0660
60	1	1	18.3940	6.4920	15.1480
61	1	1	19.4760	6.4920	14.0660
62	1	1	20.5580	6.4920	15.1480
63	1	1	20.5580	7.5740	16.2300
64	1	1	19.4760	6.4920	16.2300
65	1	1	19.4760	7.5740	17.3120
66	1	1	19.4760	8.6560	18.3940
67	1	1	18.3940	7.5740	18.3940
68	1	1	18.3940	8.6560	19.4760
69	1	1	18.3940	7.5740	20.5580
70	1	1	17.3120	7.5740	21.6400
71	1	1	17.3120	6.4920	22.7220
72	1	1	17.3120	5.4100	23.8040
73	1	1	17.3120	4.3280	24.8860
74	1	1	16.2300	4.3280	23.8040
75	1	1	15.1480	4.3280	22.7220
76	1	1	14.0660	3.2460	22.7220
77	1	1	14.0660	2.1640	21.6400
78	1	1	15.1480	1.0820	21.6400
79	1	1	15.1480	0.0000	20.5580
80	1	1	16.2300	-1.0820	20.5580
81	1	1	16.2300	-2.1640	21.6400
82	1	1	15.1480	-1.0820	21.6400
83	1	1	15.1480	-2.1640	20.5580
84	1	1	15.1480	-1.0820	19.4760
85	1	1	14.0660	0.0000	19.4760
86	1	1	12.9840	1.0820	19.4760
87	1	1	11.9020	1.0820	18.3940
88	1	1	10.8200	0.0000	18.3940
89	1	1	10.8200	1.0820	19.4760
90	1	1	9.7380	2.1640	19.4760
91	1	1	9.7380	3.2460	20.5580
92	1	1	8.6560	3.2460	19.4760
93	1	1	7.5740	3.2460	18.3940
94	1	1	7.5740	4.3280	17.3120
95	1	1	7.5740	3.2460	16.2300
96	1	1	7.5740	2.1640	15.1480
97	1	1	6.4920	1.0820	15.1480
98	1	1	5.4100	1.0820	14.0660
99	1	1	6.4920	1.0820	12.9840
100	1	1	5.4100	0.0000	12.9840
151	2	1	16.2300	14.0660	11.9020
152	2	1	16.2300	12.9840	10.8200
153	2	1	16.2300	11.9020	11.9020
154	2	1	17.3120	12.9840	11.9020
155	2	1	18.3940	14.0660	11.9020
156	2	1	19.4760	15.1480	11.9020
157	2	1	19.4760	16.2300	10.8200
158	2	1	18.3940	16.2300	9.7380
159	2	1	19.4760	17.3120	9.7380
160	2	1	18.3940	18.3940	9.7380
161	2	1	18.3940	17.3120	10.8200
162	2	1	17.3120	16.2300	10.8200
163	2	1	17.3120	15.1480	9.7380
164	2	1	18.3940	14.0660	9.7380
165	2	1	19.4760	14.0660	8.6560
166	2	1	20.5580	12.9840	8.6560
167	2	1	20.5580	14.0660	7.5740
168	2	1	20.5580	15.1480	8.6560
169	2	1	21.6400	15.1480	9.7380
170	2	1	22.7220	15.1480	10.8200
171	2	1	21.6400	15.1480	11.9020
172	2	1	20.5580	16.2300	11.9020
173	2	1	20.5580	17.3120	10.8200
174	2	1	21.6400	16.2300	10.8200
175	2	1	22.7220	17.3120	10.8200
176	2	1	23.8040	16.2300	10.8200
177	2	1	24.8860	17.3120	10.8200
178	2	1	23.8040	17.3120	9.7380
179	2	1	22.7220	18.3940	9.7380
180	2	1	23.8040	18.3940	8.6560
181	2	1	23.8040	17.3120	7.5740
182	2	1	24.8860	17.3120	8.6560
183	2	1	24.8860	16.2300	9.7380
184	2	1	25.9680	16.2300	10.8200
185	2	1	27.0500	17.3120	10.8200
186	2	1	27.0500	18.3940	11.9020
187	2	1	25.9680	18.3940	12.9840
188	2	1	24.8860	17.3120	12.9840
189	2	1	25.9680	17.3120	11.9020
190	2	1	25.9680	18.3940	10.8200
191	2	1	24.8860	18.3940	11.9020
192	2	1	23.8040	19.4760	11.9020
193	2	1	22.7220	19.4760	10.8200
194	2	1	23.8040	18.3940	10.8200
195	2	1	22.7220	18.3940	11.9020
196	2	1	21.6400	19.4760	11.9020
197	2	1	21.6400	18.3940	10.8200
198	2	1	20.5580	19.4760	10.8200
199	2	1	19.4760	18.3940	10.8200
200	2	1	20.5580	18.3940	9.7380
351	2	1	21.6400	17.3120	9.7380
352	2	1	22.7220	17.3120	8.6560
353	2	1	21.6400	17.3120	7.5740
354	2	1	20.5580	16.2300	7.5740
355	2	1	19.4760	17.3120	7.5740
356	2	1	19.4760	16.2300	8.6560
357	2	1	20.5580	16.2300	9.7380
358	2	1	20.5580	17.3120	8.6560
359	2	1	20.5580	18.3940	7.5740
360	2	1	21.6400	18.3940	6.4920
361	2	1	21.6400	17.3120	5.4100
362	2	1	21.6400	18.3940	4.3280
363	2	1	22.7220	18.3940	3.2460
364	2	1	22.7220	17.3120	4.3280
365	2	1	23.8040	17.3120	3.2460
366	2	1	23.8040	18.3940	4.3280
367	2	1	24.8860	19.4760	4.3280
368	2	1	25.9680	19.4760	5.4100
369	2	1	24.8860	18.3940	5.4100
370	2	1	25.9680	17.3120	5.4100
371	2	1	25.9680	16.2300	4.3280
372	2	1	25.9680	15.1480	3.2460
373	2	1	27.0500	15.1480	2.1640
374	2	1	27.0500	16.2300	1.0820
375	2	1	25.9680	15.1480	1.0820
376	2	1	25.9680	16.2300	2.1640
377	2	1	24.8860	16.2300	1.0820
378	2	1	24.8860	15.1480	0.0000
379	2	1	25.9680	15.1480	-1.0820
380	2	1	24.8860	16.2300	-1.0820
201	2	1	20.5580	19.4760	8.6560
202	2	1	19.4760	19.4760	9.7380
203	2	1	18.3940	19.4760	8.6560
204	2	1	17.3120	19.4760	7.5740
205	2	1	17.3120	20.5580	6.4920
206	2	1	17.3120	19.4760	5.4100
207	2	1	16.2300	20.5580	5.4100
208	2	1	16.2300	19.4760	6.4920
209	2	1	16.2300	18.3940	5.4100
210	2	1	16.2300	17.3120	6.4920
211	2	1	16.2300	16.2300	7.5740
212	2	1	17.3120	16.2300	6.4920
213	2	1	18.3940	15.1480	6.4920
214	2	1	18.3940	14.0660	5.4100
215	2	1	17.3120	14.0660	4.3280
216	2	1	17.3120	12.9840	5.4100
217	2	1	16.2300	11.9020	5.4100
218	2	1	15.1480	10.8200	5.4100
219	2	1	14.0660	9.7380	5.4100
220	2	1	12.9840	9.7380	6.4920
221	2	1	11.9020	10.8200	6.4920
222	2	1	11.9020	11.9020	5.4100
223	2	1	12.9840	11.9020	4.3280
224	2	1	11.9020	11.9020	3.2460
225	2	1	10.8200	11.9020	4.3280
226	2	1	9.7380	11.9020	3.2460
227	2	1	8.6560	12.9840	3.2460
228	2	1	7.5740	14.0660	3.2460
229	2	1	6.4920	12.9840	3.2460
230	2	1	6.4920	14.0660	2.1640
231	2	1	5.4100	14.0660	1.0820
232	2	1	4.3280	15.1480	1.0820
233	2	1	4.3280	14.0660	2.1640
234	2	1	3.2460	14.0660	3.2460
235	2	1	4.3280	15.1480	3.2460
236	2	1	5.4100	15.1480	4.3280
237	2	1	5.4100	16.2300	5.4100
238	2	1	6.4920	16.2300	4.3280
239	2	1	6.4920	15.1480	3.2460
240	2	1	6.4920	14.0660	4.3280
241	2	1	6.4920	15.1480	5.4100
242	2	1	7.5740	14.0660	5.4100
243	2	1	7.5740	12.9840	4.3280
244	2	1	7.5740	11.9020	5.4100
245	2	1	7.5740	10.8200	4.3280
246	2	1	8.6560	9.7380	4.3280
247	2	1	9.7380	9.7380	3.2460
248	2	1	8.6560	8.6560	3.2460
249	2	1	7.5740	7.5740	3.2460
250	2	1	7.5740	6.4920	2.1640
251	2	1	7.5740	7.5740	1.0820
252	2	1	8.6560	8.6560	1.0820
253	2	1	7.5740	9.7380	1.0820
254	2	1	7.5740	8.6560	2.1640
255	2	1	6.4920	8.6560	1.0820
256	2	1	5.4100	9.7380	1.0820
257	2	1	5.4100	8.6560	2.1640
258	2	1	4.3280	7.5740	2.1640
259	2	1	4.3280	8.6560	3.2460
260	2	1	3.2460	8.6560	4.3280
261	2	1	2.1640	8.6560	5.4100
262	2	1	1.0820	9.7380	5.4100
263	2	1	0.0000	9.7380	6.4920
264	2	1	0.0000	10.8200	5.4100
265	2	1	-1.0820	10.8200	6.4920
266	2	1	-1.0820	11.9020	7.5740
267	2	1	-1.0820	12.9840	6.4920
268	2	1	-1.0820	14.0660	5.4100
269	2	1	-1.0820	15.1480	4.3280
270	2	1	-1.0820	16.2300	5.4100
271	2	1	-2.1640	16.2300	4.3280
272	2	1	-3.2460	15.1480	4.3280
273	2	1	-4.3280	16.2300	4.3280
274	2	1	-4.3280	15.1480	5.4100
275	2	1	-4.3280	14.0660	6.4920
276	2	1	-3.2460	12.9840	6.4920
277	2	1	-2.1640	12.9840	7.5740
278	2	1	-3.2460	11.9020	7.5740
279	2	1	-3.2460	10.8200	6.4920
280	2	1	-3.2460	11.9020	5.4100
281	2	1	-4.3280	10.8200	5.4100
282	2	1	-5.4100	10.8200	6.4920
283	2	1	-5.4100	11.9020	5.4100
284	2	1	-4.3280	11.9020	6.4920
285	2	1	-4.3280	12.9840	7.5740
286	2	1	-5.4100	12.9840	8.6560
287	2	1	-4.3280	12.9840	9.7380
288	2	1	-3.2460	14.0660	9.7380
289	2	1	-2.1640	12.9840	9.7380
290	2	1	-3.2460	12.9840	10.8200
291	2	1	-2.1640	12.9840	11.9020
292	2	1	-2.1640	14.0660	12.9840
293	2	1	-2.1640	15.1480	14.0660
294	2	1	-2.1640	16.2300	12.9840
295	2	1	-2.1640	17.3120	11.9020
296	2	1	-3.2460	18.3940	11.9020
297	2	1	-3.2460	17.3120	12.9840
298	2	1	-4.3280	16.2300	12.9840
299	2	1	-5.4100	16.2300	11.9020
300	2	1	-5.4100	15.1480	10.8200
301	2	1	-4.3280	14.0660	10.8200
302	2	1	-3.2460	14.0660	11.9020
303	2	1	-2.1640	14.0660	10.8200
304	2	1	-1.0820	14.0660	9.7380
305	2	1	0.0000	14.0660	8.6560
306	2	1	1.0820	15.1480	8.6560
307	2	1	0.0000	15.1480	7.5740
308	2	1	-1.0820	15.1480	6.4920
309	2	1	-2.1640	16.2300	6.4920
310	2	1	-1.0820	17.3120	6.4920
311	2	1	0.0000	17.3120	5.4100
312	2	1	0.0000	16.2300	4.3280
313	2	1	1.0820	16.2300	5.4100
314	2	1	0.0000	15.1480	5.4100
315	2	1	1.0820	15.1480	4.3280
316	2	1	1.0820	14.0660	3.2460
317	2	1	2.1640	14.0660	2.1640
318	2	1	2.1640	12.9840	1.0820
319	2	1	3.2460	14.0660	1.0820
320	2	1	4.3280	12.9840	1.0820
321	2	1	4.3280	11.9020	2.1640
322	2	1	5.4100	10.8200	2.1640
323	2	1	6.4920	11.9020	2.1640
324	2	1	7.5740	12.9840	2.1640
325	2	1	8.6560	12.9840	1.0820
326	2	1	8.6560	14.0660	2.1640
327	2	1	7.5740	14.0660	1.0820
328	2	1	7.5740	15.1480	0.0000
329	2	1	8.6560	15.1480	1.0820
330	2	1	9.7380	15.1480	2.1640
331	2	1	8.6560	16.2300	2.1640
332	2	1	9.7380	16.2300	1.0820
333	2	1	9.7380	17.3120	2.1640
334	2	1	8.6560	17.3120	1.0820
335	2	1	8.6560	16.2300	0.0000
336	2	1	9.7380	15.1480	0.0000
337	2	1	10.8200	16.2300	0.0000
338	2	1	11.9020	15.1480	0.0000
339	2	1	11.9020	16.2300	-1.0820
340	2	1	12.9840	16.2300	-2.1640
341	2	1	12.9840	17.3120	-3.2460
342	2	1	12.9840	18.3940	-4.3280
343	2	1	14.0660	17.3120	-4.3280
344	2	1	15.1480	16.2300	-4.3280
345	2	1	16.2300	17.3120	-4.3280
346	2	1	17.3120	16.2300	-4.3280
347	2	1	17.3120	17.3120	-5.4100
348	2	1	16.2300	17.3120	-6.4920
349	2	1	16.2300	18.3940	-5.4100
350	2	1	15.1480	18.3940	-4.3280
381	3	1	9.7380	15.1480	8.6560
382	3	1	10.8200	16.2300	8.6560
383	3	1	11.9020	17.3120	8.6560
384	3	1	12.9840	16.2300	8.6560
385	3	1	12.9840	17.3120	9.7380
386	3	1	14.0660	16.2300	9.7380
387	3	1	14.0660	15.1480	10.8200
388	3	1	15.1480	16.2300	10.8200
389	3	1	14.0660	16.2300	11.9020
390	3	1	15.1480	17.3120	11.9020
391	3	1	15.1480	16.2300	12.9840
392	3	1	14.0660	17.3120	12.9840
393	3	1	14.0660	18.3940	11.9020
394	3	1	15.1480	18.3940	10.8200
395	3	1	14.0660	19.4760	10.8200
396	3	1	12.9840	18.3940	10.8200
397	3	1	14.0660	17.3120	10.8200
398	3	1	12.9840	16.2300	10.8200
399	3	1	11.9020	16.2300	9.7380
400	3	1	11.9020	17.3120	10.8200
401	3	1	10.8200	17.3120	9.7380
402	3	1	9.7380	16.2300	9.7380
403	3	1	10.8200	15.1480	9.7380
404	3	1	9.7380	15.1480	10.8200
405	3	1	9.7380	16.2300	11.9020
406	3	1	10.8200	16.2300	12.9840
407	3	1	10.8200	15.1480	14.0660
408	3	1	9.7380	15.1480	15.1480
409	3	1	9.7380	14.0660	14.0660
410	3	1	10.8200	12.9840	14.0660
681	3	1	9.7380	11.9020	14.0660
682	3	1	8.6560	12.9840	14.0660
683	3	1	9.7380	12.9840	12.9840
684	3	1	9.7380	14.0660	11.9020
685	3	1	10.8200	15.1480	11.9020
686	3	1	10.8200	14.0660	12.9840
687	3	1	9.7380	15.1480	12.9840
688	3	1	8.6560	14.0660	12.9840
689	3	1	7.5740	12.9840	12.9840
690	3	1	6.4920	11.9020	12.9840
411	3	1	10.8200	14.0660	15.1480
412	3	1	11.9020	14.0660	16.2300
413	3	1	11.9020	12.9840	17.3120
414	3	1	10.8200	12.9840	18.3940
415	3	1	10.8200	14.0660	19.4760
416	3	1	10.8200	15.1480	18.3940
417	3	1	9.7380	15.1480	17.3120
418	3	1	8.6560	16.2300	17.3120
419	3	1	8.6560	17.3120	18.3940
420	3	1	8.6560	16.2300	19.4760
421	3	1	7.5740	16.2300	18.3940
422	3	1	7.5740	15.1480	19.4760
423	3	1	6.4920	14.0660	19.4760
424	3	1	7.5740	12.9840	19.4760
425	3	1	7.5740	11.9020	18.3940
426	3	1	8.6560	11.9020	19.4760
427	3	1	8.6560	10.8200	20.5580
428	3	1	9.7380	10.8200	21.6400
429	3	1	8.6560	11.9020	21.6400
430	3	1	8.6560	12.9840	22.7220
431	3	1	8.6560	14.0660	21.6400
432	3	1	7.5740	12.9840	21.6400
433	3	1	7.5740	11.9020	20.5580
434	3	1	6.4920	10.8200	20.5580
435	3	1	7.5740	9.7380	20.5580
436	3	1	6.4920	8.6560	20.5580
437	3	1	7.5740	7.5740	20.5580
438	3	1	7.5740	8.6560	19.4760
439	3	1	8.6560	8.6560	20.5580
440	3	1	9.7380	8.6560	19.4760
441	3	1	9.7380	7.5740	18.3940
442	3	1	9.7380	6.4920	17.3120
443	3	1	10.8200	7.5740	17.3120
444	3	1	11.9020	7.5740	16.2300
445	3	1	12.9840	8.6560	16.2300
446	3	1	11.9020	9.7380	16.2300
447	3	1	10.8200	9.7380	15.1480
448	3	1	10.8200	8.6560	16.2300
449	3	1	9.7380	7.5740	16.2300
450	3	1	8.6560	7.5740	15.1480
451	3	1	8.6560	6.4920	16.2300
452	3	1	7.5740	7.5740	16.2300
453	3	1	8.6560	7.5740	17.3120
454	3	1	8.6560	6.4920	18.3940
455	3	1	7.5740	7.5740	18.3940
456	3	1	7.5740	8.6560	17.3120
457	3	1	7.5740	9.7380	16.2300
458	3	1	7.5740	8.6560	15.1480
459	3	1	7.5740	7.5740	14.0660
460	3	1	6.4920	7.5740	15.1480
461	3	1	6.4920	6.4920	16.2300
462	3	1	6.4920	5.4100	17.3120
463	3	1	5.4100	5.4100	16.2300
464	3	1	5.4100	4.3280	15.1480
465	3	1	4.3280	3.2460	15.1480
466	3	1	4.3280	2.1640	16.2300
467	3	1	5.4100	2.1640	15.1480
468	3	1	4.3280	1.0820	15.1480
469	3	1	3.2460	0.0000	15.1480
470	3	1	2.1640	1.0820	15.1480
471	3	1	1.0820	1.0820	14.0660
472	3	1	2.1640	2.1640	14.0660
473	3	1	1.0820	3.2460	14.0660
474	3	1	2.1640	3.2460	15.1480
475	3	1	2.1640	4.3280	16.2300
476	3	1	1.0820	3.2460	16.2300
477	3	1	0.0000	2.1640	16.2300
478	3	1	0.0000	1.0820	15.1480
479	3	1	1.0820	1.0820	16.2300
480	3	1	0.0000	0.0000	16.2300
691	3	1	1.0820	0.0000	15.1480
692	3	1	1.0820	-1.0820	16.2300
693	3	1	1.0820	0.0000	17.3120
694	3	1	1.0820	-1.0820	18.3940
695	3	1	2.1640	0.0000	18.3940
696	3	1	2.1640	1.0820	19.4760
697	3	1	1.0820	1.0820	20.5580
698	3	1	0.0000	1.0820	19.4760
699	3	1	1.0820	2.1640	19.4760
700	3	1	2.1640	2.1640	20.5580
481	3	1	0.0000	-1.0820	15.1480
482	3	1	0.0000	0.0000	14.0660
483	3	1	0.0000	1.0820	12.9840
484	3	1	-1.0820	1.0820	11.9020
485	3	1	-2.1640	0.0000	11.9020
486	3	1	-2.1640	1.0820	10.8200
487	3	1	-2.1640	2.1640	9.7380
488	3	1	-3.2460	3.2460	9.7380
489	3	1	-2.1640	3.2460	8.6560
490	3	1	-3.2460	3.2460	7.5740
491	3	1	-4.3280	4.3280	7.5740
492	3	1	-4.3280	5.4100	8.6560
493	3	1	-3.2460	5.4100	7.5740
494	3	1	-2.1640	5.4100	6.4920
495	3	1	-2.1640	4.3280	7.5740
496	3	1	-1.0820	4.3280	6.4920
497	3	1	0.0000	4.3280	7.5740
498	3	1	1.0820	3.2460	7.5740
499	3	1	1.0820	2.1640	6.4920
500	3	1	2.1640	3.2460	6.4920
501	3	1	3.2460	3.2460	5.4100
502	3	1	3.2460	4.3280	4.3280
503	3	1	3.2460	5.4100	5.4100
504	3	1	3.2460	6.4920	4.3280
505	3	1	4.3280	7.5740	4.3280
506	3	1	3.2460	7.5740	3.2460
507	3	1	3.2460	8.6560	2.1640
508	3	1	3.2460	9.7380	3.2460
509	3	1	3.2460	10.8200	2.1640
510	3	1	3.2460	9.7380	1.0820
511	3	1	3.2460	10.8200	0.0000
512	3	1	4.3280	11.9020	0.0000
513	3	1	4.3280	12.9840	-1.0820
514	3	1	3.2460	14.0660	-1.0820
515	3	1	2.1640	14.0660	-2.1640
516	3	1	3.2460	15.1480	-2.1640
517	3	1	3.2460	14.0660	-3.2460
518	3	1	2.1640	12.9840	-3.2460
519	3	1	2.1640	14.0660	-4.3280
520	3	1	3.2460	12.9840	-4.3280
521	3	1	4.3280	12.9840	-3.2460
522	3	1	4.3280	14.0660	-4.3280
523	3	1	4.3280	15.1480	-3.2460
524	3	1	4.3280	16.2300	-4.3280
525	3	1	4.3280	15.1480	-5.4100
526	3	1	3.2460	16.2300	-5.4100
527	3	1	3.2460	15.1480	-6.4920
528	3	1	4.3280	15.1480	-7.5740
529	3	1	3.2460	14.0660	-7.5740
530	3	1	2.1640	15.1480	-7.5740
531	3	1	2.1640	16.2300	-8.6560
532	3	1	1.0820	16.2300	-9.7380
533	3	1	0.0000	15.1480	-9.7380
534	3	1	-1.0820	15.1480	-10.8200
535	3	1	-1.0820	14.0660	-11.9020
536	3	1	0.0000	14.0660	-10.8200
537	3	1	1.0820	14.0660	-11.9020
538	3	1	1.0820	12.9840	-10.8200
539	3	1	1.0820	11.9020	-11.9020
540	3	1	2.1640	10.8200	-11.9020
541	3	1	2.1640	9.7380	-10.8200
542	3	1	2.1640	10.8200	-9.7380
543	3	1	3.2460	9.7380	-9.7380
544	3	1	4.3280	8.6560	-9.7380
545	3	1	3.2460	7.5740	-9.7380
546	3	1	2.1640	7.5740	-8.6560
547	3	1	1.0820	7.5740	-7.5740
548	3	1	1.0820	8.6560	-6.4920
549	3	1	0.0000	8.6560	-5.4100
550	3	1	-1.0820	7.5740	-5.4100
551	3	1	0.0000	7.5740	-6.4920
552	3	1	-1.0820	6.4920	-6.4920
553	3	1	-1.0820	5.4100	-5.4100
554	3	1	-2.1640	6.4920	-5.4100
555	3	1	-2.1640	7.5740	-4.3280
556	3	1	-1.0820	6.4920	-4.3280
557	3	1	0.0000	6.4920	-3.2460
558	3	1	0.0000	5.4100	-2.1640
559	3	1	0.0000	6.4920	-1.0820
560	3	1	0.0000	7.5740	0.0000
561	3	1	0.0000	6.4920	1.0820
562	3	1	0.0000	7.5740	2.1640
563	3	1	0.0000	8.6560	1.0820
564	3	1	1.0820	8.6560	2.1640
565	3	1	1.0820	9.7380	3.2460
566	3	1	2.1640	9.7380	4.3280
567	3	1	1.0820	10.8200	4.3280
568	3	1	0.0000	9.7380	4.3280
569	3	1	-1.0820	10.8200	4.3280
570	3	1	0.0000	10.8200	3.2460
571	3	1	-1.0820	10.8200	2.1640
572	3	1	0.0000	11.9020	2.1640
573	3	1	1.0820	12.9840	2.1640
574	3	1	1.0820	14.0660	1.0820
575	3	1	2.1640	14.0660	0.0000
576	3	1	1.0820	14.0660	-1.0820
577	3	1	0.0000	14.0660	0.0000
578	3	1	1.0820	12.9840	0.0000
579	3	1	1.0820	11.9020	1.0820
580	3	1	2.1640	11.9020	0.0000
581	3	1	2.1640	12.9840	-1.0820
582	3	1	3.2460	12.9840	0.0000
583	3	1	4.3280	14.0660	0.0000
584	3	1	5.4100	14.0660	-1.0820
585	3	1	6.4920	14.0660	0.0000
586	3	1	6.4920	15.1480	-1.0820
587	3	1	7.5740	15.1480	-2.1640
588	3	1	8.6560	15.1480	-1.0820
589	3	1	8.6560	16.2300	-2.1640
590	3	1	9.7380	16.2300	-1.0820
591	3	1	9.7380	17.3120	0.0000
592	3	1	9.7380	18.3940	1.0820
593	3	1	8.6560	18.3940	2.1640
594	3	1	8.6560	19.4760	3.2460
595	3	1	9.7380	20.5580	3.2460
596	3	1	10.8200	20.5580	4.3280
597	3	1	9.7380	19.4760	4.3280
598	3	1	10.8200	19.4760	5.4100
599	3	1	10.8200	20.5580	6.4920
600	3	1	10.8200	19.4760	7.5740
601	3	1	11.9020	20.5580	7.5740
602	3	1	11.9020	21.6400	8.6560
603	3	1	12.9840	20.5580	8.6560
604	3	1	14.0660	20.5580	7.5740
605	3	1	15.1480	20.5580	8.6560
606	3	1	16.2300	21.6400	8.6560
607	3	1	17.3120	21.6400	9.7380
608	3	1	18.3940	21.6400	10.8200
609	3	1	17.3120	21.6400	11.9020
610	3	1	16.2300	21.6400	12.9840
611	3	1	17.3120	21.6400	14.0660
612	3	1	16.2300	22.7220	14.0660
613	3	1	16.2300	23.8040	15.1480
614	3	1	17.3120	22.7220	15.1480
615	3	1	17.3120	23.8040	16.2300
616	3	1	18.3940	24.8860	16.2300
617	3	1	17.3120	25.9680	16.2300
618	3	1	16.2300	25.9680	15.1480
619	3	1	17.3120	25.9680	14.0660
620	3	1	17.3120	24.8860	15.1480
621	3	1	18.3940	24.8860	14.0660
622	3	1	19.4760	25.9680	14.0660
623	3	1	19.4760	24.8860	12.9840
624	3	1	20.5580	24.8860	11.9020
625	3	1	20.5580	23.8040	12.9840
626	3	1	21.6400	23.8040	14.0660
627	3	1	22.7220	24.8860	14.0660
628	3	1	22.7220	25.9680	15.1480
629	3	1	22.7220	27.0500	16.2300
630	3	1	21.6400	25.9680	16.2300
631	3	1	21.6400	24.8860	17.3120
632	3	1	20.5580	25.9680	17.3120
633	3	1	21.6400	25.9680	18.3940
634	3	1	20.5580	27.0500	18.3940
635	3	1	20.5580	25.9680	19.4760
636	3	1	20.5580	24.8860	18.3940
637	3	1	21.6400	24.8860	19.4760
638	3	1	22.7220	24.8860	18.3940
639	3	1	22.7220	25.9680	19.4760
640	3	1	23.8040	25.9680	20.5580
641	3	1	24.8860	25.9680	21.6400
642	3	1	23.8040	27.0500	21.6400
643	3	1	24.8860	28.1320	21.6400
644	3	1	25.9680	29.2140	21.6400
645	3	1	27.0500	30.2960	21.6400
646	3	1	27.0500	29.2140	22.7220
647	3	1	27.0500	30.2960	23.8040
648	3	1	27.0500	31.3780	22.7220
649	3	1	28.1320	30.2960	22.7220
650	3	1	29.2140	31.3780	22.7220
651	3	1	28.1320	32.4600	22.7220
652	3	1	29.2140	32.4600	23.8040
653	3	1	28.1320	31.3780	23.8040
654	3	1	28.1320	30.2960	24.8860
655	3	1	28.1320	29.2140	23.8040
656	3	1	27.0500	29.2140	24.8860
657	3	1	25.9680	29.2140	23.8040
658	3	1	25.9680	30.2960	24.8860
659	3	1	24.8860	30.2960	25.9680
660	3	1	23.8040	30.2960	27.0500
661	3	1	22.7220	30.2960	28.1320
662	3	1	22.7220	31.3780	29.2140
663	3	1	23.8040	31.3780	30.2960
664	3	1	24.8860	30.2960	30.2960
665	3	1	24.8860	29.2140	29.2140
666	3	1	23.8040	29.2140	28.1320
667	3	1	24.8860	28.1320	28.1320
668	3	1	24.8860	29.2140	27.0500
669	3	1	25.9680	30.2960	27.0500
670	3	1	25.9680	31.3780	28.1320
671	3	1	24.8860	32.4600	28.1320
672	3	1	24.8860	31.3780	27.0500
673	3	1	25.9680	32.4600	27.0500
674	3	1	25.9680	31.3780	25.9680
675	3	1	24.8860	31.3780	24.8860
676	3	1	25.9680	32.4600	24.8860
677	3	1	24.8860	33.5420	24.8860
678	3	1	25.9680	33.5420	23.8040
679	3	1	25.9680	32.4600	22.7220
680	3	1	24.8860	33.5420	22.7220

Bonds

1  1   1   2
2  1   2   3
3  1   3   4
4  1   4   5
5  1   5   6
6  1   6   7
7  1   7   8
8  1   8   9
9  1   9   10
10  1   10   11
11  1   11   12
12  1   12   13
13  1   13   14
14  1   14   15
15  1   15   16
16  1   16   17
17  1   17   18
18  1   18   19
19  1   19   20
20  1   20   21
21  1   21   22
22  1   22   23
23  1   23   24
24  1   24   25
25  1   25   26
26  1   26   27
27  1   27   28
28  1   28   29
29  1   29   30
30  1   30   31
31  1   31   32
32  1   32   33
33  1   33   34
34  1   34   35
35  1   35   36
36  1   36   37
37  1   37   38
38  1   38   39
39  1   39   40
40  1   40   41
41  1   41   42
42  1   42   43
43  1   43   44
44  1   44   45
45  1   45   46
46  1   46   47
47  1   47   48
48  1   48   49
49  1   49   50
100  1   50   101
101     1   102   101
102     1   103   102
103     1   104   103
104     1   105   104
105     1   106   105
106     1   107   106
107     1   108   107
108     1   109   108
109     1   110   109
110     1   111   110
111     1   112   111
112     1   113   112
113     1   114   113
114     1   115   114
115     1   116   115
116     1   117   116
117     1   118   117
118     1   119   118
119     1   120   119
120     1   121   120
121     1   122   121
122     1   123   122
123     1   124   123
124     1   125   124
125     1   126   125
126     1   127   126
127     1   128   127
128     1   129   128
129     1   130   129
130     1   131   130
131     1   132   131
132     1   133   132
133     1   134   133
134     1   135   134
135     1   136   135
136     1   137   136
137     1   138   137
138     1   139   138
139     1   140   139
140     1   141   140
141     1   142   141
142     1   143   142
143     1   144   143
144     1   145   144
145     1   146   145
146     1   147   146
147     1   148   147
148     1   149   148
149     1   150   149
50  1   50   51
51  1   51   52
52  1   52   53
53  1   53   54
54  1   54   55
55  1   55   56
56  1   56   57
57  1   57   58
58  1   58   59
59  1   59   60
60  1   60   61
61  1   61   62
62  1   62   63
63  1   63   64
64  1   64   65
65  1   65   66
66  1   66   67
67  1   67   68
68  1   68   69
69  1   69   70
70  1   70   71
71  1   71   72
72  1   72   73
73  1   73   74
74  1   74   75
75  1   75   76
76  1   76   77
77  1   77   78
78  1   78   79
79  1   79   80
80  1   80   81
81  1   81   82
82  1   82   83
83  1   83   84
84  1   84   85
85  1   85   86
86  1   86   87
87  1   87   88
88  1   88   89
89  1   89   90
90  1   90   91
91  1   91   92
92  1   92   93
93  1   93   94
94  1   94   95
95  1   95   96
96  1   96   97
97  1   97   98
98  1   98   99
99  1   99   100
150  1   151   152
151  1   152   153
152  1   153   154
153  1   154   155
154  1   155   156
155  1   156   157
156  1   157   158
157  1   158   159
158  1   159   160
159  1   160   161
160  1   161   162
161  1   162   163
162  1   163   164
163  1   164   165
164  1   165   166
165  1   166   167
166  1   167   168
167  1   168   169
168  1   169   170
169  1   170   171
170  1   171   172
171  1   172   173
172  1   173   174
173  1   174   175
174  1   175   176
175  1   176   177
176  1   177   178
177  1   178   179
178  1   179   180
179  1   180   181
180  1   181   182
181  1   182   183
182  1   183   184
183  1   184   185
184  1   185   186
185  1   186   187
186  1   187   188
187  1   188   189
188  1   189   190
189  1   190   191
190  1   191   192
191  1   192   193
192  1   193   194
193  1   194   195
194  1   195   196
195  1   196   197
196  1   197   198
197  1   198   199
198  1   199   200
349  1   200   351
350     1   352   351
351     1   353   352
352     1   354   353
353     1   355   354
354     1   356   355
355     1   357   356
356     1   358   357
357     1   359   358
358     1   360   359
359     1   361   360
360     1   362   361
361     1   363   362
362     1   364   363
363     1   365   364
364     1   366   365
365     1   367   366
366     1   368   367
367     1   369   368
368     1   370   369
369     1   371   370
370     1   372   371
371     1   373   372
372     1   374   373
373     1   375   374
374     1   376   375
375     1   377   376
376     1   378   377
377     1   379   378
378     1   380   379
199  1   200   201
200  1   201   202
201  1   202   203
202  1   203   204
203  1   204   205
204  1   205   206
205  1   206   207
206  1   207   208
207  1   208   209
208  1   209   210
209  1   210   211
210  1   211   212
211  1   212   213
212  1   213   214
213  1   214   215
214  1   215   216
215  1   216   217
216  1   217   218
217  1   218   219
218  1   219   220
219  1   220   221
220  1   221   222
221  1   222   223
222  1   223   224
223  1   224   225
224  1   225   226
225  1   226   227
226  1   227   228
227  1   228   229
228  1   229   230
229  1   230   231
230  1   231   232
231  1   232   233
232  1   233   234
233  1   234   235
234  1   235   236
235  1   236   237
236  1   237   238
237  1   238   239
238  1   239   240
239  1   240   241
240  1   241   242
241  1   242   243
242  1   243   244
243  1   244   245
244  1   245   246
245  1   246   247
246  1   247   248
247  1   248   249
248  1   249   250
249  1   250   251
250  1   251   252
251  1   252   253
252  1   253   254
253  1   254   255
254  1   255   256
255  1   256   257
256  1   257   258
257  1   258   259
258  1   259   260
259  1   260   261
260  1   261   262
261  1   262   263
262  1   263   264
263  1   264   265
264  1   265   266
265  1   266   267
266  1   267   268
267  1   268   269
268  1   269   270
269  1   270   271
270  1   271   272
271  1   272   273
272  1   273   274
273  1   274   275
274  1   275   276
275  1   276   277
276  1   277   278
277  1   278   279
278  1   279   280
279  1   280   281
280  1   281   282
281  1   282   283
282  1   283   284
283  1   284   285
284  1   285   286
285  1   286   287
286  1   287   288
287  1   288   289
288  1   289   290
289  1   290   291
290  1   291   292
291  1   292   293
292  1   293   294
293  1   294   295
294  1   295   296
295  1   296   297
296  1   297   298
297  1   298   299
298  1   299   300
299  1   300   301
300  1   301   302
301  1   302   303
302  1   303   304
303  1   304   305
304  1   305   306
305  1   306   307
306  1   307   308
307  1   308   309
308  1   309   310
309  1   310   311
310  1   311   312
311  1   312   313
312  1   313   314
313  1   314   315
314  1   315   316
315  1   316   317
316  1   317   318
317  1   318   319
318  1   319   320
319  1   320   321
320  1   321   322
321  1   322   323
322  1   323   324
323  1   324   325
324  1   325   326
325  1   326   327
326  1   327   328
327  1   328   329
328  1   329   330
329  1   330   331
330  1   331   332
331  1   332   333
332  1   333   334
333  1   334   335
334  1   335   336
335  1   336   337
336  1   337   338
337  1   338   339
338  1   339   340
339  1   340   341
340  1   341   342
341  1   342   343
342  1   343   344
343  1   344   345
344  1   345   346
345  1   346   347
346  1   347   348
347  1   348   349
348  1   349   350
379  1   381   382
380  1   382   383
381  1   383   384
382  1   384   385
383  1   385   386
384  1   386   387
385  1   387   388
386  1   388   389
387  1   389   390
388  1   390   391
389  1   391   392
390  1   392   393
391  1   393   394
392  1   394   395
393  1   395   396
394  1   396   397
395  1   397   398
396  1   398   399
397  1   399   400
398  1   400   401
399  1   401   402
400  1   402   403
401  1   403   404
402  1   404   405
403  1   405   406
404  1   406   407
405  1   407   408
406  1   408   409
407  1   409   410
678  1   410   681
679     1   682   681
680     1   683   682
681     1   684   683
682     1   685   684
683     1   686   685
684     1   687   686
685     1   688   687
686     1   689   688
687     1   690   689
408  1   410   411
409  1   411   412
410  1   412   413
411  1   413   414
412  1   414   415
413  1   415   416
414  1   416   417
415  1   417   418
416  1   418   419
417  1   419   420
418  1   420   421
419  1   421   422
420  1   422   423
421  1   423   424
422  1   424   425
423  1   425   426
424  1   426   427
425  1   427   428
426  1   428   429
427  1   429   430